ITEM: TIMESTEP
82067
ITEM: NUMBER OF ATOMS
79007
ITEM: BOX BOUNDS pp pp pp
-1.9330049071083573e+02 1.9330049071083573e+02
-1.9330049071083573e+02 1.9330049071083573e+02
-1.9330049071083573e+02 1.9330049071083573e+02
ITEM: ATOMS id type x y z 
